M 0.00000 1 (107.37, 25.17, 0.00), (107.37, 25.17), 50.00
M 0.00000 2 (26.85, 1322.37, 0.00), (26.85, 1322.37), 50.00
M 0.00000 3 (1093.93, 120.63, 0.00), (1093.93, 120.63), 50.00
M 0.00000 4 (976.79, 909.07, 0.00), (976.79, 909.07), 50.00
s 1.000000000 _4_ AGT  --- 0 cbr 1000 [0 0 0 0] ------- [4:0 0:1 32 0] [0] 0 0
s 1.000000000 _2_ AGT  --- 1 tcp 40 [0 0 0 0] ------- [2:0 0:0 32 0] [0 0] 0 0
M 1.00000 1 (1202.99, 184.81, 0.00), (1202.99, 184.81), 50.00
M 1.00000 2 (1113.09, 1273.13, 0.00), (1113.09, 1273.13), 50.00
M 1.00000 3 (1446.65, 425.63, 0.00), (1446.65, 425.63), 50.00
M 1.00000 4 (32.53, 792.59, 0.00), (32.53, 792.59), 50.00
s 1.008000000 _4_ AGT  --- 2 cbr 1000 [0 0 0 0] ------- [4:0 0:1 32 0] [1] 0 0
s 1.016000000 _4_ AGT  --- 3 cbr 1000 [0 0 0 0] ------- [4:0 0:1 32 0] [2] 0 0
s 1.024000000 _4_ AGT  --- 4 cbr 1000 [0 0 0 0] ------- [4:0 0:1 32 0] [3] 0 0
s 1.032000000 _4_ AGT  --- 5 cbr 1000 [0 0 0 0] ------- [4:0 0:1 32 0] [4] 0 0
s 1.040000000 _4_ AGT  --- 6 cbr 1000 [0 0 0 0] ------- [4:0 0:1 32 0] [5] 0 0
s 1.048000000 _4_ AGT  --- 7 cbr 1000 [0 0 0 0] ------- [4:0 0:1 32 0] [6] 0 0
s 1.056000000 _4_ AGT  --- 8 cbr 1000 [0 0 0 0] ------- [4:0 0:1 32 0] [7] 0 0
s 1.064000000 _4_ AGT  --- 9 cbr 1000 [0 0 0 0] ------- [4:0 0:1 32 0] [8] 0 0
s 1.072000000 _4_ AGT  --- 10 cbr 1000 [0 0 0 0] ------- [4:0 0:1 32 0] [9] 0 0
s 1.080000000 _4_ AGT  --- 11 cbr 1000 [0 0 0 0] ------- [4:0 0:1 32 0] [10] 0 0
s 1.088000000 _4_ AGT  --- 12 cbr 1000 [0 0 0 0] ------- [4:0 0:1 32 0] [11] 0 0
s 1.096000000 _4_ AGT  --- 13 cbr 1000 [0 0 0 0] ------- [4:0 0:1 32 0] [12] 0 0
s 1.104000000 _4_ AGT  --- 14 cbr 1000 [0 0 0 0] ------- [4:0 0:1 32 0] [13] 0 0
s 1.112000000 _4_ AGT  --- 15 cbr 1000 [0 0 0 0] ------- [4:0 0:1 32 0] [14] 0 0
s 1.120000000 _4_ AGT  --- 16 cbr 1000 [0 0 0 0] ------- [4:0 0:1 32 0] [15] 0 0
s 1.128000000 _4_ AGT  --- 17 cbr 1000 [0 0 0 0] ------- [4:0 0:1 32 0] [16] 0 0
s 1.136000000 _4_ AGT  --- 18 cbr 1000 [0 0 0 0] ------- [4:0 0:1 32 0] [17] 0 0
s 1.144000000 _4_ AGT  --- 19 cbr 1000 [0 0 0 0] ------- [4:0 0:1 32 0] [18] 0 0
s 1.152000000 _4_ AGT  --- 20 cbr 1000 [0 0 0 0] ------- [4:0 0:1 32 0] [19] 0 0
s 1.160000000 _4_ AGT  --- 21 cbr 1000 [0 0 0 0] ------- [4:0 0:1 32 0] [20] 0 0
s 1.168000000 _4_ AGT  --- 22 cbr 1000 [0 0 0 0] ------- [4:0 0:1 32 0] [21] 0 0
s 1.176000000 _4_ AGT  --- 23 cbr 1000 [0 0 0 0] ------- [4:0 0:1 32 0] [22] 0 0
s 1.184000000 _4_ AGT  --- 24 cbr 1000 [0 0 0 0] ------- [4:0 0:1 32 0] [23] 0 0
s 1.192000000 _4_ AGT  --- 25 cbr 1000 [0 0 0 0] ------- [4:0 0:1 32 0] [24] 0 0
s 1.200000000 _4_ AGT  --- 26 cbr 1000 [0 0 0 0] ------- [4:0 0:1 32 0] [25] 0 0
s 1.208000000 _4_ AGT  --- 27 cbr 1000 [0 0 0 0] ------- [4:0 0:1 32 0] [26] 0 0
s 1.216000000 _4_ AGT  --- 28 cbr 1000 [0 0 0 0] ------- [4:0 0:1 32 0] [27] 0 0
s 1.224000000 _4_ AGT  --- 29 cbr 1000 [0 0 0 0] ------- [4:0 0:1 32 0] [28] 0 0
s 1.232000000 _4_ AGT  --- 30 cbr 1000 [0 0 0 0] ------- [4:0 0:1 32 0] [29] 0 0
s 1.240000000 _4_ AGT  --- 31 cbr 1000 [0 0 0 0] ------- [4:0 0:1 32 0] [30] 0 0
s 1.248000000 _4_ AGT  --- 32 cbr 1000 [0 0 0 0] ------- [4:0 0:1 32 0] [31] 0 0
s 1.256000000 _4_ AGT  --- 33 cbr 1000 [0 0 0 0] ------- [4:0 0:1 32 0] [32] 0 0
s 1.264000000 _4_ AGT  --- 34 cbr 1000 [0 0 0 0] ------- [4:0 0:1 32 0] [33] 0 0
s 1.272000000 _4_ AGT  --- 35 cbr 1000 [0 0 0 0] ------- [4:0 0:1 32 0] [34] 0 0
s 1.280000000 _4_ AGT  --- 36 cbr 1000 [0 0 0 0] ------- [4:0 0:1 32 0] [35] 0 0
s 1.288000000 _4_ AGT  --- 37 cbr 1000 [0 0 0 0] ------- [4:0 0:1 32 0] [36] 0 0
s 1.296000000 _4_ AGT  --- 38 cbr 1000 [0 0 0 0] ------- [4:0 0:1 32 0] [37] 0 0
s 1.304000000 _4_ AGT  --- 39 cbr 1000 [0 0 0 0] ------- [4:0 0:1 32 0] [38] 0 0
s 1.312000000 _4_ AGT  --- 40 cbr 1000 [0 0 0 0] ------- [4:0 0:1 32 0] [39] 0 0
s 1.320000000 _4_ AGT  --- 41 cbr 1000 [0 0 0 0] ------- [4:0 0:1 32 0] [40] 0 0
s 1.328000000 _4_ AGT  --- 42 cbr 1000 [0 0 0 0] ------- [4:0 0:1 32 0] [41] 0 0
s 1.336000000 _4_ AGT  --- 43 cbr 1000 [0 0 0 0] ------- [4:0 0:1 32 0] [42] 0 0
s 1.344000000 _4_ AGT  --- 44 cbr 1000 [0 0 0 0] ------- [4:0 0:1 32 0] [43] 0 0
s 1.352000000 _4_ AGT  --- 45 cbr 1000 [0 0 0 0] ------- [4:0 0:1 32 0] [44] 0 0
s 1.360000000 _4_ AGT  --- 46 cbr 1000 [0 0 0 0] ------- [4:0 0:1 32 0] [45] 0 0
s 1.368000000 _4_ AGT  --- 47 cbr 1000 [0 0 0 0] ------- [4:0 0:1 32 0] [46] 0 0
s 1.376000000 _4_ AGT  --- 48 cbr 1000 [0 0 0 0] ------- [4:0 0:1 32 0] [47] 0 0
s 1.384000000 _4_ AGT  --- 49 cbr 1000 [0 0 0 0] ------- [4:0 0:1 32 0] [48] 0 0
s 1.392000000 _4_ AGT  --- 50 cbr 1000 [0 0 0 0] ------- [4:0 0:1 32 0] [49] 0 0
s 1.400000000 _4_ AGT  --- 51 cbr 1000 [0 0 0 0] ------- [4:0 0:1 32 0] [50] 0 0
s 1.408000000 _4_ AGT  --- 52 cbr 1000 [0 0 0 0] ------- [4:0 0:1 32 0] [51] 0 0
s 1.416000000 _4_ AGT  --- 53 cbr 1000 [0 0 0 0] ------- [4:0 0:1 32 0] [52] 0 0
s 1.424000000 _4_ AGT  --- 54 cbr 1000 [0 0 0 0] ------- [4:0 0:1 32 0] [53] 0 0
s 1.432000000 _4_ AGT  --- 55 cbr 1000 [0 0 0 0] ------- [4:0 0:1 32 0] [54] 0 0
s 1.440000000 _4_ AGT  --- 56 cbr 1000 [0 0 0 0] ------- [4:0 0:1 32 0] [55] 0 0
s 1.448000000 _4_ AGT  --- 57 cbr 1000 [0 0 0 0] ------- [4:0 0:1 32 0] [56] 0 0
s 1.456000000 _4_ AGT  --- 58 cbr 1000 [0 0 0 0] ------- [4:0 0:1 32 0] [57] 0 0
s 1.464000000 _4_ AGT  --- 59 cbr 1000 [0 0 0 0] ------- [4:0 0:1 32 0] [58] 0 0
s 1.472000000 _4_ AGT  --- 60 cbr 1000 [0 0 0 0] ------- [4:0 0:1 32 0] [59] 0 0
s 1.480000000 _4_ AGT  --- 61 cbr 1000 [0 0 0 0] ------- [4:0 0:1 32 0] [60] 0 0
s 1.488000000 _4_ AGT  --- 62 cbr 1000 [0 0 0 0] ------- [4:0 0:1 32 0] [61] 0 0
s 1.496000000 _4_ AGT  --- 63 cbr 1000 [0 0 0 0] ------- [4:0 0:1 32 0] [62] 0 0
s 1.504000000 _4_ AGT  --- 64 cbr 1000 [0 0 0 0] ------- [4:0 0:1 32 0] [63] 0 0
s 1.512000000 _4_ AGT  --- 65 cbr 1000 [0 0 0 0] ------- [4:0 0:1 32 0] [64] 0 0
D 1.512000000 _4_ RTR  IFQ 0 cbr 1020 [0 0 0 0] ------- [4:0 0:1 30 0] [0] 0 0
s 1.520000000 _4_ AGT  --- 66 cbr 1000 [0 0 0 0] ------- [4:0 0:1 32 0] [65] 0 0
D 1.520000000 _4_ RTR  IFQ 2 cbr 1020 [0 0 0 0] ------- [4:0 0:1 30 0] [1] 0 0
s 1.528000000 _4_ AGT  --- 67 cbr 1000 [0 0 0 0] ------- [4:0 0:1 32 0] [66] 0 0
D 1.528000000 _4_ RTR  IFQ 3 cbr 1020 [0 0 0 0] ------- [4:0 0:1 30 0] [2] 0 0
s 1.536000000 _4_ AGT  --- 68 cbr 1000 [0 0 0 0] ------- [4:0 0:1 32 0] [67] 0 0
D 1.536000000 _4_ RTR  IFQ 4 cbr 1020 [0 0 0 0] ------- [4:0 0:1 30 0] [3] 0 0
s 1.544000000 _4_ AGT  --- 69 cbr 1000 [0 0 0 0] ------- [4:0 0:1 32 0] [68] 0 0
D 1.544000000 _4_ RTR  IFQ 5 cbr 1020 [0 0 0 0] ------- [4:0 0:1 30 0] [4] 0 0
s 1.552000000 _4_ AGT  --- 70 cbr 1000 [0 0 0 0] ------- [4:0 0:1 32 0] [69] 0 0
D 1.552000000 _4_ RTR  IFQ 6 cbr 1020 [0 0 0 0] ------- [4:0 0:1 30 0] [5] 0 0
s 1.560000000 _4_ AGT  --- 71 cbr 1000 [0 0 0 0] ------- [4:0 0:1 32 0] [70] 0 0
D 1.560000000 _4_ RTR  IFQ 7 cbr 1020 [0 0 0 0] ------- [4:0 0:1 30 0] [6] 0 0
s 1.568000000 _4_ AGT  --- 72 cbr 1000 [0 0 0 0] ------- [4:0 0:1 32 0] [71] 0 0
D 1.568000000 _4_ RTR  IFQ 8 cbr 1020 [0 0 0 0] ------- [4:0 0:1 30 0] [7] 0 0
s 1.576000000 _4_ AGT  --- 73 cbr 1000 [0 0 0 0] ------- [4:0 0:1 32 0] [72] 0 0
D 1.576000000 _4_ RTR  IFQ 9 cbr 1020 [0 0 0 0] ------- [4:0 0:1 30 0] [8] 0 0
s 1.584000000 _4_ AGT  --- 74 cbr 1000 [0 0 0 0] ------- [4:0 0:1 32 0] [73] 0 0
D 1.584000000 _4_ RTR  IFQ 10 cbr 1020 [0 0 0 0] ------- [4:0 0:1 30 0] [9] 0 0
s 1.592000000 _4_ AGT  --- 75 cbr 1000 [0 0 0 0] ------- [4:0 0:1 32 0] [74] 0 0
D 1.592000000 _4_ RTR  IFQ 11 cbr 1020 [0 0 0 0] ------- [4:0 0:1 30 0] [10] 0 0
s 1.600000000 _4_ AGT  --- 76 cbr 1000 [0 0 0 0] ------- [4:0 0:1 32 0] [75] 0 0
D 1.600000000 _4_ RTR  IFQ 12 cbr 1020 [0 0 0 0] ------- [4:0 0:1 30 0] [11] 0 0
s 1.608000000 _4_ AGT  --- 77 cbr 1000 [0 0 0 0] ------- [4:0 0:1 32 0] [76] 0 0
D 1.608000000 _4_ RTR  IFQ 13 cbr 1020 [0 0 0 0] ------- [4:0 0:1 30 0] [12] 0 0
s 1.616000000 _4_ AGT  --- 78 cbr 1000 [0 0 0 0] ------- [4:0 0:1 32 0] [77] 0 0
D 1.616000000 _4_ RTR  IFQ 14 cbr 1020 [0 0 0 0] ------- [4:0 0:1 30 0] [13] 0 0
s 1.624000000 _4_ AGT  --- 79 cbr 1000 [0 0 0 0] ------- [4:0 0:1 32 0] [78] 0 0
D 1.624000000 _4_ RTR  IFQ 15 cbr 1020 [0 0 0 0] ------- [4:0 0:1 30 0] [14] 0 0
s 1.632000000 _4_ AGT  --- 80 cbr 1000 [0 0 0 0] ------- [4:0 0:1 32 0] [79] 0 0
D 1.632000000 _4_ RTR  IFQ 16 cbr 1020 [0 0 0 0] ------- [4:0 0:1 30 0] [15] 0 0
s 1.640000000 _4_ AGT  --- 81 cbr 1000 [0 0 0 0] ------- [4:0 0:1 32 0] [80] 0 0
D 1.640000000 _4_ RTR  IFQ 17 cbr 1020 [0 0 0 0] ------- [4:0 0:1 30 0] [16] 0 0
s 1.648000000 _4_ AGT  --- 82 cbr 1000 [0 0 0 0] ------- [4:0 0:1 32 0] [81] 0 0
D 1.648000000 _4_ RTR  IFQ 18 cbr 1020 [0 0 0 0] ------- [4:0 0:1 30 0] [17] 0 0
s 1.656000000 _4_ AGT  --- 83 cbr 1000 [0 0 0 0] ------- [4:0 0:1 32 0] [82] 0 0
D 1.656000000 _4_ RTR  IFQ 19 cbr 1020 [0 0 0 0] ------- [4:0 0:1 30 0] [18] 0 0
s 1.664000000 _4_ AGT  --- 84 cbr 1000 [0 0 0 0] ------- [4:0 0:1 32 0] [83] 0 0
D 1.664000000 _4_ RTR  IFQ 20 cbr 1020 [0 0 0 0] ------- [4:0 0:1 30 0] [19] 0 0
s 1.672000000 _4_ AGT  --- 85 cbr 1000 [0 0 0 0] ------- [4:0 0:1 32 0] [84] 0 0
D 1.672000000 _4_ RTR  IFQ 21 cbr 1020 [0 0 0 0] ------- [4:0 0:1 30 0] [20] 0 0
s 1.680000000 _4_ AGT  --- 86 cbr 1000 [0 0 0 0] ------- [4:0 0:1 32 0] [85] 0 0
D 1.680000000 _4_ RTR  IFQ 22 cbr 1020 [0 0 0 0] ------- [4:0 0:1 30 0] [21] 0 0
s 1.688000000 _4_ AGT  --- 87 cbr 1000 [0 0 0 0] ------- [4:0 0:1 32 0] [86] 0 0
D 1.688000000 _4_ RTR  IFQ 23 cbr 1020 [0 0 0 0] ------- [4:0 0:1 30 0] [22] 0 0
s 1.696000000 _4_ AGT  --- 88 cbr 1000 [0 0 0 0] ------- [4:0 0:1 32 0] [87] 0 0
D 1.696000000 _4_ RTR  IFQ 24 cbr 1020 [0 0 0 0] ------- [4:0 0:1 30 0] [23] 0 0
s 1.704000000 _4_ AGT  --- 89 cbr 1000 [0 0 0 0] ------- [4:0 0:1 32 0] [88] 0 0
D 1.704000000 _4_ RTR  IFQ 25 cbr 1020 [0 0 0 0] ------- [4:0 0:1 30 0] [24] 0 0
s 1.712000000 _4_ AGT  --- 90 cbr 1000 [0 0 0 0] ------- [4:0 0:1 32 0] [89] 0 0
D 1.712000000 _4_ RTR  IFQ 26 cbr 1020 [0 0 0 0] ------- [4:0 0:1 30 0] [25] 0 0
s 1.720000000 _4_ AGT  --- 91 cbr 1000 [0 0 0 0] ------- [4:0 0:1 32 0] [90] 0 0
D 1.720000000 _4_ RTR  IFQ 27 cbr 1020 [0 0 0 0] ------- [4:0 0:1 30 0] [26] 0 0
s 1.728000000 _4_ AGT  --- 92 cbr 1000 [0 0 0 0] ------- [4:0 0:1 32 0] [91] 0 0
D 1.728000000 _4_ RTR  IFQ 28 cbr 1020 [0 0 0 0] ------- [4:0 0:1 30 0] [27] 0 0
s 1.736000000 _4_ AGT  --- 93 cbr 1000 [0 0 0 0] ------- [4:0 0:1 32 0] [92] 0 0
D 1.736000000 _4_ RTR  IFQ 29 cbr 1020 [0 0 0 0] ------- [4:0 0:1 30 0] [28] 0 0
s 1.744000000 _4_ AGT  --- 94 cbr 1000 [0 0 0 0] ------- [4:0 0:1 32 0] [93] 0 0
D 1.744000000 _4_ RTR  IFQ 30 cbr 1020 [0 0 0 0] ------- [4:0 0:1 30 0] [29] 0 0
s 1.752000000 _4_ AGT  --- 95 cbr 1000 [0 0 0 0] ------- [4:0 0:1 32 0] [94] 0 0
D 1.752000000 _4_ RTR  IFQ 31 cbr 1020 [0 0 0 0] ------- [4:0 0:1 30 0] [30] 0 0
s 1.760000000 _4_ AGT  --- 96 cbr 1000 [0 0 0 0] ------- [4:0 0:1 32 0] [95] 0 0
D 1.760000000 _4_ RTR  IFQ 32 cbr 1020 [0 0 0 0] ------- [4:0 0:1 30 0] [31] 0 0
s 1.768000000 _4_ AGT  --- 97 cbr 1000 [0 0 0 0] ------- [4:0 0:1 32 0] [96] 0 0
D 1.768000000 _4_ RTR  IFQ 33 cbr 1020 [0 0 0 0] ------- [4:0 0:1 30 0] [32] 0 0
s 1.776000000 _4_ AGT  --- 98 cbr 1000 [0 0 0 0] ------- [4:0 0:1 32 0] [97] 0 0
D 1.776000000 _4_ RTR  IFQ 34 cbr 1020 [0 0 0 0] ------- [4:0 0:1 30 0] [33] 0 0
s 1.784000000 _4_ AGT  --- 99 cbr 1000 [0 0 0 0] ------- [4:0 0:1 32 0] [98] 0 0
D 1.784000000 _4_ RTR  IFQ 35 cbr 1020 [0 0 0 0] ------- [4:0 0:1 30 0] [34] 0 0
s 1.792000000 _4_ AGT  --- 100 cbr 1000 [0 0 0 0] ------- [4:0 0:1 32 0] [99] 0 0
D 1.792000000 _4_ RTR  IFQ 36 cbr 1020 [0 0 0 0] ------- [4:0 0:1 30 0] [35] 0 0
s 1.800000000 _4_ AGT  --- 101 cbr 1000 [0 0 0 0] ------- [4:0 0:1 32 0] [100] 0 0
D 1.800000000 _4_ RTR  IFQ 37 cbr 1020 [0 0 0 0] ------- [4:0 0:1 30 0] [36] 0 0
s 1.808000000 _4_ AGT  --- 102 cbr 1000 [0 0 0 0] ------- [4:0 0:1 32 0] [101] 0 0
D 1.808000000 _4_ RTR  IFQ 38 cbr 1020 [0 0 0 0] ------- [4:0 0:1 30 0] [37] 0 0
s 1.816000000 _4_ AGT  --- 103 cbr 1000 [0 0 0 0] ------- [4:0 0:1 32 0] [102] 0 0
D 1.816000000 _4_ RTR  IFQ 39 cbr 1020 [0 0 0 0] ------- [4:0 0:1 30 0] [38] 0 0
s 1.824000000 _4_ AGT  --- 104 cbr 1000 [0 0 0 0] ------- [4:0 0:1 32 0] [103] 0 0
D 1.824000000 _4_ RTR  IFQ 40 cbr 1020 [0 0 0 0] ------- [4:0 0:1 30 0] [39] 0 0
s 1.832000000 _4_ AGT  --- 105 cbr 1000 [0 0 0 0] ------- [4:0 0:1 32 0] [104] 0 0
D 1.832000000 _4_ RTR  IFQ 41 cbr 1020 [0 0 0 0] ------- [4:0 0:1 30 0] [40] 0 0
s 1.840000000 _4_ AGT  --- 106 cbr 1000 [0 0 0 0] ------- [4:0 0:1 32 0] [105] 0 0
D 1.840000000 _4_ RTR  IFQ 42 cbr 1020 [0 0 0 0] ------- [4:0 0:1 30 0] [41] 0 0
s 1.848000000 _4_ AGT  --- 107 cbr 1000 [0 0 0 0] ------- [4:0 0:1 32 0] [106] 0 0
D 1.848000000 _4_ RTR  IFQ 43 cbr 1020 [0 0 0 0] ------- [4:0 0:1 30 0] [42] 0 0
s 1.856000000 _4_ AGT  --- 108 cbr 1000 [0 0 0 0] ------- [4:0 0:1 32 0] [107] 0 0
D 1.856000000 _4_ RTR  IFQ 44 cbr 1020 [0 0 0 0] ------- [4:0 0:1 30 0] [43] 0 0
s 1.864000000 _4_ AGT  --- 109 cbr 1000 [0 0 0 0] ------- [4:0 0:1 32 0] [108] 0 0
D 1.864000000 _4_ RTR  IFQ 45 cbr 1020 [0 0 0 0] ------- [4:0 0:1 30 0] [44] 0 0
s 1.872000000 _4_ AGT  --- 110 cbr 1000 [0 0 0 0] ------- [4:0 0:1 32 0] [109] 0 0
D 1.872000000 _4_ RTR  IFQ 46 cbr 1020 [0 0 0 0] ------- [4:0 0:1 30 0] [45] 0 0
s 1.880000000 _4_ AGT  --- 111 cbr 1000 [0 0 0 0] ------- [4:0 0:1 32 0] [110] 0 0
D 1.880000000 _4_ RTR  IFQ 47 cbr 1020 [0 0 0 0] ------- [4:0 0:1 30 0] [46] 0 0
s 1.888000000 _4_ AGT  --- 112 cbr 1000 [0 0 0 0] ------- [4:0 0:1 32 0] [111] 0 0
D 1.888000000 _4_ RTR  IFQ 48 cbr 1020 [0 0 0 0] ------- [4:0 0:1 30 0] [47] 0 0
s 1.896000000 _4_ AGT  --- 113 cbr 1000 [0 0 0 0] ------- [4:0 0:1 32 0] [112] 0 0
D 1.896000000 _4_ RTR  IFQ 49 cbr 1020 [0 0 0 0] ------- [4:0 0:1 30 0] [48] 0 0
s 1.904000000 _4_ AGT  --- 114 cbr 1000 [0 0 0 0] ------- [4:0 0:1 32 0] [113] 0 0
D 1.904000000 _4_ RTR  IFQ 50 cbr 1020 [0 0 0 0] ------- [4:0 0:1 30 0] [49] 0 0
s 1.912000000 _4_ AGT  --- 115 cbr 1000 [0 0 0 0] ------- [4:0 0:1 32 0] [114] 0 0
D 1.912000000 _4_ RTR  IFQ 51 cbr 1020 [0 0 0 0] ------- [4:0 0:1 30 0] [50] 0 0
s 1.920000000 _4_ AGT  --- 116 cbr 1000 [0 0 0 0] ------- [4:0 0:1 32 0] [115] 0 0
D 1.920000000 _4_ RTR  IFQ 52 cbr 1020 [0 0 0 0] ------- [4:0 0:1 30 0] [51] 0 0
s 1.928000000 _4_ AGT  --- 117 cbr 1000 [0 0 0 0] ------- [4:0 0:1 32 0] [116] 0 0
D 1.928000000 _4_ RTR  IFQ 53 cbr 1020 [0 0 0 0] ------- [4:0 0:1 30 0] [52] 0 0
s 1.936000000 _4_ AGT  --- 118 cbr 1000 [0 0 0 0] ------- [4:0 0:1 32 0] [117] 0 0
D 1.936000000 _4_ RTR  IFQ 54 cbr 1020 [0 0 0 0] ------- [4:0 0:1 30 0] [53] 0 0
s 1.944000000 _4_ AGT  --- 119 cbr 1000 [0 0 0 0] ------- [4:0 0:1 32 0] [118] 0 0
D 1.944000000 _4_ RTR  IFQ 55 cbr 1020 [0 0 0 0] ------- [4:0 0:1 30 0] [54] 0 0
s 1.952000000 _4_ AGT  --- 120 cbr 1000 [0 0 0 0] ------- [4:0 0:1 32 0] [119] 0 0
D 1.952000000 _4_ RTR  IFQ 56 cbr 1020 [0 0 0 0] ------- [4:0 0:1 30 0] [55] 0 0
s 1.960000000 _4_ AGT  --- 121 cbr 1000 [0 0 0 0] ------- [4:0 0:1 32 0] [120] 0 0
D 1.960000000 _4_ RTR  IFQ 57 cbr 1020 [0 0 0 0] ------- [4:0 0:1 30 0] [56] 0 0
s 1.968000000 _4_ AGT  --- 122 cbr 1000 [0 0 0 0] ------- [4:0 0:1 32 0] [121] 0 0
D 1.968000000 _4_ RTR  IFQ 58 cbr 1020 [0 0 0 0] ------- [4:0 0:1 30 0] [57] 0 0
s 1.976000000 _4_ AGT  --- 123 cbr 1000 [0 0 0 0] ------- [4:0 0:1 32 0] [122] 0 0
D 1.976000000 _4_ RTR  IFQ 59 cbr 1020 [0 0 0 0] ------- [4:0 0:1 30 0] [58] 0 0
s 1.984000000 _4_ AGT  --- 124 cbr 1000 [0 0 0 0] ------- [4:0 0:1 32 0] [123] 0 0
D 1.984000000 _4_ RTR  IFQ 60 cbr 1020 [0 0 0 0] ------- [4:0 0:1 30 0] [59] 0 0
s 1.992000000 _4_ AGT  --- 125 cbr 1000 [0 0 0 0] ------- [4:0 0:1 32 0] [124] 0 0
D 1.992000000 _4_ RTR  IFQ 61 cbr 1020 [0 0 0 0] ------- [4:0 0:1 30 0] [60] 0 0
M 2.00000 1 (1077.57, 1200.60, 0.00), (1077.57, 1200.60), 50.00
M 2.00000 2 (517.19, 1369.58, 0.00), (517.19, 1369.58), 50.00
M 2.00000 3 (953.59, 964.65, 0.00), (953.59, 964.65), 50.00
M 2.00000 4 (924.92, 556.86, 0.00), (924.92, 556.86), 50.00
s 2.000000000 _4_ AGT  --- 126 cbr 1000 [0 0 0 0] ------- [4:0 0:1 32 0] [125] 0 0
D 2.000000000 _4_ RTR  IFQ 62 cbr 1020 [0 0 0 0] ------- [4:0 0:1 30 0] [61] 0 0
s 2.008000000 _4_ AGT  --- 127 cbr 1000 [0 0 0 0] ------- [4:0 0:1 32 0] [126] 0 0
D 2.008000000 _4_ RTR  IFQ 63 cbr 1020 [0 0 0 0] ------- [4:0 0:1 30 0] [62] 0 0
s 2.016000000 _4_ AGT  --- 128 cbr 1000 [0 0 0 0] ------- [4:0 0:1 32 0] [127] 0 0
D 2.016000000 _4_ RTR  IFQ 64 cbr 1020 [0 0 0 0] ------- [4:0 0:1 30 0] [63] 0 0
s 2.024000000 _4_ AGT  --- 129 cbr 1000 [0 0 0 0] ------- [4:0 0:1 32 0] [128] 0 0
D 2.024000000 _4_ RTR  IFQ 65 cbr 1020 [0 0 0 0] ------- [4:0 0:1 30 0] [64] 0 0
s 2.032000000 _4_ AGT  --- 130 cbr 1000 [0 0 0 0] ------- [4:0 0:1 32 0] [129] 0 0
D 2.032000000 _4_ RTR  IFQ 66 cbr 1020 [0 0 0 0] ------- [4:0 0:1 30 0] [65] 0 0
s 2.040000000 _4_ AGT  --- 131 cbr 1000 [0 0 0 0] ------- [4:0 0:1 32 0] [130] 0 0
D 2.040000000 _4_ RTR  IFQ 67 cbr 1020 [0 0 0 0] ------- [4:0 0:1 30 0] [66] 0 0
s 2.048000000 _4_ AGT  --- 132 cbr 1000 [0 0 0 0] ------- [4:0 0:1 32 0] [131] 0 0
D 2.048000000 _4_ RTR  IFQ 68 cbr 1020 [0 0 0 0] ------- [4:0 0:1 30 0] [67] 0 0
s 2.056000000 _4_ AGT  --- 133 cbr 1000 [0 0 0 0] ------- [4:0 0:1 32 0] [132] 0 0
D 2.056000000 _4_ RTR  IFQ 69 cbr 1020 [0 0 0 0] ------- [4:0 0:1 30 0] [68] 0 0
s 2.064000000 _4_ AGT  --- 134 cbr 1000 [0 0 0 0] ------- [4:0 0:1 32 0] [133] 0 0
D 2.064000000 _4_ RTR  IFQ 70 cbr 1020 [0 0 0 0] ------- [4:0 0:1 30 0] [69] 0 0
s 2.072000000 _4_ AGT  --- 135 cbr 1000 [0 0 0 0] ------- [4:0 0:1 32 0] [134] 0 0
D 2.072000000 _4_ RTR  IFQ 71 cbr 1020 [0 0 0 0] ------- [4:0 0:1 30 0] [70] 0 0
s 2.080000000 _4_ AGT  --- 136 cbr 1000 [0 0 0 0] ------- [4:0 0:1 32 0] [135] 0 0
D 2.080000000 _4_ RTR  IFQ 72 cbr 1020 [0 0 0 0] ------- [4:0 0:1 30 0] [71] 0 0
s 2.088000000 _4_ AGT  --- 137 cbr 1000 [0 0 0 0] ------- [4:0 0:1 32 0] [136] 0 0
D 2.088000000 _4_ RTR  IFQ 73 cbr 1020 [0 0 0 0] ------- [4:0 0:1 30 0] [72] 0 0
s 2.096000000 _4_ AGT  --- 138 cbr 1000 [0 0 0 0] ------- [4:0 0:1 32 0] [137] 0 0
D 2.096000000 _4_ RTR  IFQ 74 cbr 1020 [0 0 0 0] ------- [4:0 0:1 30 0] [73] 0 0
s 2.104000000 _4_ AGT  --- 139 cbr 1000 [0 0 0 0] ------- [4:0 0:1 32 0] [138] 0 0
D 2.104000000 _4_ RTR  IFQ 75 cbr 1020 [0 0 0 0] ------- [4:0 0:1 30 0] [74] 0 0
s 2.112000000 _4_ AGT  --- 140 cbr 1000 [0 0 0 0] ------- [4:0 0:1 32 0] [139] 0 0
D 2.112000000 _4_ RTR  IFQ 76 cbr 1020 [0 0 0 0] ------- [4:0 0:1 30 0] [75] 0 0
s 2.120000000 _4_ AGT  --- 141 cbr 1000 [0 0 0 0] ------- [4:0 0:1 32 0] [140] 0 0
D 2.120000000 _4_ RTR  IFQ 77 cbr 1020 [0 0 0 0] ------- [4:0 0:1 30 0] [76] 0 0
s 2.128000000 _4_ AGT  --- 142 cbr 1000 [0 0 0 0] ------- [4:0 0:1 32 0] [141] 0 0
D 2.128000000 _4_ RTR  IFQ 78 cbr 1020 [0 0 0 0] ------- [4:0 0:1 30 0] [77] 0 0
s 2.136000000 _4_ AGT  --- 143 cbr 1000 [0 0 0 0] ------- [4:0 0:1 32 0] [142] 0 0
D 2.136000000 _4_ RTR  IFQ 79 cbr 1020 [0 0 0 0] ------- [4:0 0:1 30 0] [78] 0 0
s 2.144000000 _4_ AGT  --- 144 cbr 1000 [0 0 0 0] ------- [4:0 0:1 32 0] [143] 0 0
D 2.144000000 _4_ RTR  IFQ 80 cbr 1020 [0 0 0 0] ------- [4:0 0:1 30 0] [79] 0 0
s 2.152000000 _4_ AGT  --- 145 cbr 1000 [0 0 0 0] ------- [4:0 0:1 32 0] [144] 0 0
D 2.152000000 _4_ RTR  IFQ 81 cbr 1020 [0 0 0 0] ------- [4:0 0:1 30 0] [80] 0 0
s 2.160000000 _4_ AGT  --- 146 cbr 1000 [0 0 0 0] ------- [4:0 0:1 32 0] [145] 0 0
D 2.160000000 _4_ RTR  IFQ 82 cbr 1020 [0 0 0 0] ------- [4:0 0:1 30 0] [81] 0 0
s 2.168000000 _4_ AGT  --- 147 cbr 1000 [0 0 0 0] ------- [4:0 0:1 32 0] [146] 0 0
D 2.168000000 _4_ RTR  IFQ 83 cbr 1020 [0 0 0 0] ------- [4:0 0:1 30 0] [82] 0 0
s 2.176000000 _4_ AGT  --- 148 cbr 1000 [0 0 0 0] ------- [4:0 0:1 32 0] [147] 0 0
D 2.176000000 _4_ RTR  IFQ 84 cbr 1020 [0 0 0 0] ------- [4:0 0:1 30 0] [83] 0 0
s 2.184000000 _4_ AGT  --- 149 cbr 1000 [0 0 0 0] ------- [4:0 0:1 32 0] [148] 0 0
D 2.184000000 _4_ RTR  IFQ 85 cbr 1020 [0 0 0 0] ------- [4:0 0:1 30 0] [84] 0 0
s 2.192000000 _4_ AGT  --- 150 cbr 1000 [0 0 0 0] ------- [4:0 0:1 32 0] [149] 0 0
D 2.192000000 _4_ RTR  IFQ 86 cbr 1020 [0 0 0 0] ------- [4:0 0:1 30 0] [85] 0 0
s 2.200000000 _4_ AGT  --- 151 cbr 1000 [0 0 0 0] ------- [4:0 0:1 32 0] [150] 0 0
D 2.200000000 _4_ RTR  IFQ 87 cbr 1020 [0 0 0 0] ------- [4:0 0:1 30 0] [86] 0 0
s 2.208000000 _4_ AGT  --- 152 cbr 1000 [0 0 0 0] ------- [4:0 0:1 32 0] [151] 0 0
D 2.208000000 _4_ RTR  IFQ 88 cbr 1020 [0 0 0 0] ------- [4:0 0:1 30 0] [87] 0 0
s 2.216000000 _4_ AGT  --- 153 cbr 1000 [0 0 0 0] ------- [4:0 0:1 32 0] [152] 0 0
D 2.216000000 _4_ RTR  IFQ 89 cbr 1020 [0 0 0 0] ------- [4:0 0:1 30 0] [88] 0 0
s 2.224000000 _4_ AGT  --- 154 cbr 1000 [0 0 0 0] ------- [4:0 0:1 32 0] [153] 0 0
D 2.224000000 _4_ RTR  IFQ 90 cbr 1020 [0 0 0 0] ------- [4:0 0:1 30 0] [89] 0 0
s 2.232000000 _4_ AGT  --- 155 cbr 1000 [0 0 0 0] ------- [4:0 0:1 32 0] [154] 0 0
D 2.232000000 _4_ RTR  IFQ 91 cbr 1020 [0 0 0 0] ------- [4:0 0:1 30 0] [90] 0 0
s 2.240000000 _4_ AGT  --- 156 cbr 1000 [0 0 0 0] ------- [4:0 0:1 32 0] [155] 0 0
D 2.240000000 _4_ RTR  IFQ 92 cbr 1020 [0 0 0 0] ------- [4:0 0:1 30 0] [91] 0 0
s 2.248000000 _4_ AGT  --- 157 cbr 1000 [0 0 0 0] ------- [4:0 0:1 32 0] [156] 0 0
D 2.248000000 _4_ RTR  IFQ 93 cbr 1020 [0 0 0 0] ------- [4:0 0:1 30 0] [92] 0 0
s 2.256000000 _4_ AGT  --- 158 cbr 1000 [0 0 0 0] ------- [4:0 0:1 32 0] [157] 0 0
D 2.256000000 _4_ RTR  IFQ 94 cbr 1020 [0 0 0 0] ------- [4:0 0:1 30 0] [93] 0 0
s 2.264000000 _4_ AGT  --- 159 cbr 1000 [0 0 0 0] ------- [4:0 0:1 32 0] [158] 0 0
D 2.264000000 _4_ RTR  IFQ 95 cbr 1020 [0 0 0 0] ------- [4:0 0:1 30 0] [94] 0 0
s 2.272000000 _4_ AGT  --- 160 cbr 1000 [0 0 0 0] ------- [4:0 0:1 32 0] [159] 0 0
D 2.272000000 _4_ RTR  IFQ 96 cbr 1020 [0 0 0 0] ------- [4:0 0:1 30 0] [95] 0 0
s 2.280000000 _4_ AGT  --- 161 cbr 1000 [0 0 0 0] ------- [4:0 0:1 32 0] [160] 0 0
D 2.280000000 _4_ RTR  IFQ 97 cbr 1020 [0 0 0 0] ------- [4:0 0:1 30 0] [96] 0 0
s 2.288000000 _4_ AGT  --- 162 cbr 1000 [0 0 0 0] ------- [4:0 0:1 32 0] [161] 0 0
D 2.288000000 _4_ RTR  IFQ 98 cbr 1020 [0 0 0 0] ------- [4:0 0:1 30 0] [97] 0 0
s 2.296000000 _4_ AGT  --- 163 cbr 1000 [0 0 0 0] ------- [4:0 0:1 32 0] [162] 0 0
D 2.296000000 _4_ RTR  IFQ 99 cbr 1020 [0 0 0 0] ------- [4:0 0:1 30 0] [98] 0 0
s 2.304000000 _4_ AGT  --- 164 cbr 1000 [0 0 0 0] ------- [4:0 0:1 32 0] [163] 0 0
D 2.304000000 _4_ RTR  IFQ 100 cbr 1020 [0 0 0 0] ------- [4:0 0:1 30 0] [99] 0 0
s 2.312000000 _4_ AGT  --- 165 cbr 1000 [0 0 0 0] ------- [4:0 0:1 32 0] [164] 0 0
D 2.312000000 _4_ RTR  IFQ 101 cbr 1020 [0 0 0 0] ------- [4:0 0:1 30 0] [100] 0 0
s 2.320000000 _4_ AGT  --- 166 cbr 1000 [0 0 0 0] ------- [4:0 0:1 32 0] [165] 0 0
D 2.320000000 _4_ RTR  IFQ 102 cbr 1020 [0 0 0 0] ------- [4:0 0:1 30 0] [101] 0 0
s 2.328000000 _4_ AGT  --- 167 cbr 1000 [0 0 0 0] ------- [4:0 0:1 32 0] [166] 0 0
D 2.328000000 _4_ RTR  IFQ 103 cbr 1020 [0 0 0 0] ------- [4:0 0:1 30 0] [102] 0 0
s 2.336000000 _4_ AGT  --- 168 cbr 1000 [0 0 0 0] ------- [4:0 0:1 32 0] [167] 0 0
D 2.336000000 _4_ RTR  IFQ 104 cbr 1020 [0 0 0 0] ------- [4:0 0:1 30 0] [103] 0 0
s 2.344000000 _4_ AGT  --- 169 cbr 1000 [0 0 0 0] ------- [4:0 0:1 32 0] [168] 0 0
D 2.344000000 _4_ RTR  IFQ 105 cbr 1020 [0 0 0 0] ------- [4:0 0:1 30 0] [104] 0 0
s 2.352000000 _4_ AGT  --- 170 cbr 1000 [0 0 0 0] ------- [4:0 0:1 32 0] [169] 0 0
D 2.352000000 _4_ RTR  IFQ 106 cbr 1020 [0 0 0 0] ------- [4:0 0:1 30 0] [105] 0 0
s 2.360000000 _4_ AGT  --- 171 cbr 1000 [0 0 0 0] ------- [4:0 0:1 32 0] [170] 0 0
D 2.360000000 _4_ RTR  IFQ 107 cbr 1020 [0 0 0 0] ------- [4:0 0:1 30 0] [106] 0 0
s 2.368000000 _4_ AGT  --- 172 cbr 1000 [0 0 0 0] ------- [4:0 0:1 32 0] [171] 0 0
D 2.368000000 _4_ RTR  IFQ 108 cbr 1020 [0 0 0 0] ------- [4:0 0:1 30 0] [107] 0 0
s 2.376000000 _4_ AGT  --- 173 cbr 1000 [0 0 0 0] ------- [4:0 0:1 32 0] [172] 0 0
D 2.376000000 _4_ RTR  IFQ 109 cbr 1020 [0 0 0 0] ------- [4:0 0:1 30 0] [108] 0 0
s 2.384000000 _4_ AGT  --- 174 cbr 1000 [0 0 0 0] ------- [4:0 0:1 32 0] [173] 0 0
D 2.384000000 _4_ RTR  IFQ 110 cbr 1020 [0 0 0 0] ------- [4:0 0:1 30 0] [109] 0 0
s 2.392000000 _4_ AGT  --- 175 cbr 1000 [0 0 0 0] ------- [4:0 0:1 32 0] [174] 0 0
D 2.392000000 _4_ RTR  IFQ 111 cbr 1020 [0 0 0 0] ------- [4:0 0:1 30 0] [110] 0 0
s 2.400000000 _4_ AGT  --- 176 cbr 1000 [0 0 0 0] ------- [4:0 0:1 32 0] [175] 0 0
D 2.400000000 _4_ RTR  IFQ 112 cbr 1020 [0 0 0 0] ------- [4:0 0:1 30 0] [111] 0 0
s 2.408000000 _4_ AGT  --- 177 cbr 1000 [0 0 0 0] ------- [4:0 0:1 32 0] [176] 0 0
D 2.408000000 _4_ RTR  IFQ 113 cbr 1020 [0 0 0 0] ------- [4:0 0:1 30 0] [112] 0 0
s 2.416000000 _4_ AGT  --- 178 cbr 1000 [0 0 0 0] ------- [4:0 0:1 32 0] [177] 0 0
D 2.416000000 _4_ RTR  IFQ 114 cbr 1020 [0 0 0 0] ------- [4:0 0:1 30 0] [113] 0 0
s 2.424000000 _4_ AGT  --- 179 cbr 1000 [0 0 0 0] ------- [4:0 0:1 32 0] [178] 0 0
D 2.424000000 _4_ RTR  IFQ 115 cbr 1020 [0 0 0 0] ------- [4:0 0:1 30 0] [114] 0 0
s 2.432000000 _4_ AGT  --- 180 cbr 1000 [0 0 0 0] ------- [4:0 0:1 32 0] [179] 0 0
D 2.432000000 _4_ RTR  IFQ 116 cbr 1020 [0 0 0 0] ------- [4:0 0:1 30 0] [115] 0 0
s 2.440000000 _4_ AGT  --- 181 cbr 1000 [0 0 0 0] ------- [4:0 0:1 32 0] [180] 0 0
D 2.440000000 _4_ RTR  IFQ 117 cbr 1020 [0 0 0 0] ------- [4:0 0:1 30 0] [116] 0 0
s 2.448000000 _4_ AGT  --- 182 cbr 1000 [0 0 0 0] ------- [4:0 0:1 32 0] [181] 0 0
D 2.448000000 _4_ RTR  IFQ 118 cbr 1020 [0 0 0 0] ------- [4:0 0:1 30 0] [117] 0 0
s 2.456000000 _4_ AGT  --- 183 cbr 1000 [0 0 0 0] ------- [4:0 0:1 32 0] [182] 0 0
D 2.456000000 _4_ RTR  IFQ 119 cbr 1020 [0 0 0 0] ------- [4:0 0:1 30 0] [118] 0 0
s 2.464000000 _4_ AGT  --- 184 cbr 1000 [0 0 0 0] ------- [4:0 0:1 32 0] [183] 0 0
D 2.464000000 _4_ RTR  IFQ 120 cbr 1020 [0 0 0 0] ------- [4:0 0:1 30 0] [119] 0 0
s 2.472000000 _4_ AGT  --- 185 cbr 1000 [0 0 0 0] ------- [4:0 0:1 32 0] [184] 0 0
D 2.472000000 _4_ RTR  IFQ 121 cbr 1020 [0 0 0 0] ------- [4:0 0:1 30 0] [120] 0 0
s 2.480000000 _4_ AGT  --- 186 cbr 1000 [0 0 0 0] ------- [4:0 0:1 32 0] [185] 0 0
D 2.480000000 _4_ RTR  IFQ 122 cbr 1020 [0 0 0 0] ------- [4:0 0:1 30 0] [121] 0 0
s 2.488000000 _4_ AGT  --- 187 cbr 1000 [0 0 0 0] ------- [4:0 0:1 32 0] [186] 0 0
D 2.488000000 _4_ RTR  IFQ 123 cbr 1020 [0 0 0 0] ------- [4:0 0:1 30 0] [122] 0 0
s 2.496000000 _4_ AGT  --- 188 cbr 1000 [0 0 0 0] ------- [4:0 0:1 32 0] [187] 0 0
D 2.496000000 _4_ RTR  IFQ 124 cbr 1020 [0 0 0 0] ------- [4:0 0:1 30 0] [123] 0 0
s 2.504000000 _4_ AGT  --- 189 cbr 1000 [0 0 0 0] ------- [4:0 0:1 32 0] [188] 0 0
D 2.504000000 _4_ RTR  IFQ 125 cbr 1020 [0 0 0 0] ------- [4:0 0:1 30 0] [124] 0 0
s 2.512000000 _4_ AGT  --- 190 cbr 1000 [0 0 0 0] ------- [4:0 0:1 32 0] [189] 0 0
D 2.512000000 _4_ RTR  IFQ 126 cbr 1020 [0 0 0 0] ------- [4:0 0:1 30 0] [125] 0 0
s 2.520000000 _4_ AGT  --- 191 cbr 1000 [0 0 0 0] ------- [4:0 0:1 32 0] [190] 0 0
D 2.520000000 _4_ RTR  IFQ 127 cbr 1020 [0 0 0 0] ------- [4:0 0:1 30 0] [126] 0 0
s 2.528000000 _4_ AGT  --- 192 cbr 1000 [0 0 0 0] ------- [4:0 0:1 32 0] [191] 0 0
D 2.528000000 _4_ RTR  IFQ 128 cbr 1020 [0 0 0 0] ------- [4:0 0:1 30 0] [127] 0 0
s 2.536000000 _4_ AGT  --- 193 cbr 1000 [0 0 0 0] ------- [4:0 0:1 32 0] [192] 0 0
D 2.536000000 _4_ RTR  IFQ 129 cbr 1020 [0 0 0 0] ------- [4:0 0:1 30 0] [128] 0 0
s 2.544000000 _4_ AGT  --- 194 cbr 1000 [0 0 0 0] ------- [4:0 0:1 32 0] [193] 0 0
D 2.544000000 _4_ RTR  IFQ 130 cbr 1020 [0 0 0 0] ------- [4:0 0:1 30 0] [129] 0 0
s 2.552000000 _4_ AGT  --- 195 cbr 1000 [0 0 0 0] ------- [4:0 0:1 32 0] [194] 0 0
D 2.552000000 _4_ RTR  IFQ 131 cbr 1020 [0 0 0 0] ------- [4:0 0:1 30 0] [130] 0 0
s 2.560000000 _4_ AGT  --- 196 cbr 1000 [0 0 0 0] ------- [4:0 0:1 32 0] [195] 0 0
D 2.560000000 _4_ RTR  IFQ 132 cbr 1020 [0 0 0 0] ------- [4:0 0:1 30 0] [131] 0 0
s 2.568000000 _4_ AGT  --- 197 cbr 1000 [0 0 0 0] ------- [4:0 0:1 32 0] [196] 0 0
D 2.568000000 _4_ RTR  IFQ 133 cbr 1020 [0 0 0 0] ------- [4:0 0:1 30 0] [132] 0 0
s 2.576000000 _4_ AGT  --- 198 cbr 1000 [0 0 0 0] ------- [4:0 0:1 32 0] [197] 0 0
D 2.576000000 _4_ RTR  IFQ 134 cbr 1020 [0 0 0 0] ------- [4:0 0:1 30 0] [133] 0 0
s 2.584000000 _4_ AGT  --- 199 cbr 1000 [0 0 0 0] ------- [4:0 0:1 32 0] [198] 0 0
D 2.584000000 _4_ RTR  IFQ 135 cbr 1020 [0 0 0 0] ------- [4:0 0:1 30 0] [134] 0 0
s 2.592000000 _4_ AGT  --- 200 cbr 1000 [0 0 0 0] ------- [4:0 0:1 32 0] [199] 0 0
D 2.592000000 _4_ RTR  IFQ 136 cbr 1020 [0 0 0 0] ------- [4:0 0:1 30 0] [135] 0 0
s 2.600000000 _4_ AGT  --- 201 cbr 1000 [0 0 0 0] ------- [4:0 0:1 32 0] [200] 0 0
D 2.600000000 _4_ RTR  IFQ 137 cbr 1020 [0 0 0 0] ------- [4:0 0:1 30 0] [136] 0 0
s 2.608000000 _4_ AGT  --- 202 cbr 1000 [0 0 0 0] ------- [4:0 0:1 32 0] [201] 0 0
D 2.608000000 _4_ RTR  IFQ 138 cbr 1020 [0 0 0 0] ------- [4:0 0:1 30 0] [137] 0 0
s 2.616000000 _4_ AGT  --- 203 cbr 1000 [0 0 0 0] ------- [4:0 0:1 32 0] [202] 0 0
D 2.616000000 _4_ RTR  IFQ 139 cbr 1020 [0 0 0 0] ------- [4:0 0:1 30 0] [138] 0 0
s 2.624000000 _4_ AGT  --- 204 cbr 1000 [0 0 0 0] ------- [4:0 0:1 32 0] [203] 0 0
D 2.624000000 _4_ RTR  IFQ 140 cbr 1020 [0 0 0 0] ------- [4:0 0:1 30 0] [139] 0 0
s 2.632000000 _4_ AGT  --- 205 cbr 1000 [0 0 0 0] ------- [4:0 0:1 32 0] [204] 0 0
D 2.632000000 _4_ RTR  IFQ 141 cbr 1020 [0 0 0 0] ------- [4:0 0:1 30 0] [140] 0 0
s 2.640000000 _4_ AGT  --- 206 cbr 1000 [0 0 0 0] ------- [4:0 0:1 32 0] [205] 0 0
D 2.640000000 _4_ RTR  IFQ 142 cbr 1020 [0 0 0 0] ------- [4:0 0:1 30 0] [141] 0 0
s 2.648000000 _4_ AGT  --- 207 cbr 1000 [0 0 0 0] ------- [4:0 0:1 32 0] [206] 0 0
D 2.648000000 _4_ RTR  IFQ 143 cbr 1020 [0 0 0 0] ------- [4:0 0:1 30 0] [142] 0 0
s 2.656000000 _4_ AGT  --- 208 cbr 1000 [0 0 0 0] ------- [4:0 0:1 32 0] [207] 0 0
D 2.656000000 _4_ RTR  IFQ 144 cbr 1020 [0 0 0 0] ------- [4:0 0:1 30 0] [143] 0 0
s 2.664000000 _4_ AGT  --- 209 cbr 1000 [0 0 0 0] ------- [4:0 0:1 32 0] [208] 0 0
D 2.664000000 _4_ RTR  IFQ 145 cbr 1020 [0 0 0 0] ------- [4:0 0:1 30 0] [144] 0 0
s 2.672000000 _4_ AGT  --- 210 cbr 1000 [0 0 0 0] ------- [4:0 0:1 32 0] [209] 0 0
D 2.672000000 _4_ RTR  IFQ 146 cbr 1020 [0 0 0 0] ------- [4:0 0:1 30 0] [145] 0 0